6
	Energy:       5.5994985
S         -0.24539        2.18175       -1.82245
C         -1.51101        1.98234       -3.10810
H         -0.40330        0.85871       -1.36766
H         -1.81198        2.98653       -3.47084
H         -2.41278        1.50067       -2.67664
H         -1.10530        1.39175       -3.95542
