4
	Energy:       2.8626119
N         -2.19611        0.50248       -0.12150
H         -1.21090        0.19319        0.04480
H         -2.38898        1.35194        0.45679
H         -2.85141       -0.26124        0.16339
