12
	Energy:      10.5447318
C         -1.99926        0.67115       -0.00000
C         -0.63933        0.99966        0.00000
C          0.32513       -0.01382        0.00000
C         -0.07034       -1.35581       -0.00000
C         -1.43027       -1.68431       -0.00000
C         -2.39473       -0.67083       -0.00000
H          0.67579       -2.13987        0.00000
H         -1.73622       -2.72251        0.00000
H         -0.33338        2.03786       -0.00000
H          1.37721        0.24032        0.00000
H         -3.44681       -0.92497        0.00000
H         -2.74539        1.45521        0.00000
